<?xml version="1.0" encoding="UTF-8"?>

<!-- generated on Friday 13 April 2018 02:21:03 PM IST by SUMO gui Version 0.25.0
<?xml version="1.0" encoding="UTF-8"?>

<configuration xmlns:xsi="http://www.w3.org/2001/XMLSchema-instance" xsi:noNamespaceSchemaLocation="http://sumo.dlr.de/xsd/sumo-gui.exeConfiguration.xsd">

    <input>
        <net-file value="data/cross.net.xml"/>
        <route-files value="data/cross.rou.xml"/>
        <additional-files value="data/cross.det.xml"/>
    </input>

    <output>
        <tripinfo-output value="tripinfo.xml"/>
        <save-state.prefix value="data/state"/>
    </output>

    <time>
        <begin value="0"/>
    </time>

    <report>
        <verbose value="true"/>
        <no-step-log value="true"/>
    </report>

    <emissions>
        <phemlight-path value="data/./PHEMlight/"/>
    </emissions>

    <traci_server>
        <remote-port value="8876"/>
    </traci_server>

</configuration>
-->

<detector xmlns:xsi="http://www.w3.org/2001/XMLSchema-instance" xsi:noNamespaceSchemaLocation="http://sumo.dlr.de/xsd/det_e1_file.xsd">
   <interval begin="0.00" end="30.00" id="0" nVehContrib="0" flow="0.00" occupancy="0.00" speed="-1.00" length="-1.00" nVehEntered="0"/>
   <interval begin="30.00" end="60.00" id="0" nVehContrib="2" flow="240.00" occupancy="2.74" speed="17.09" length="7.00" nVehEntered="2"/>
   <interval begin="60.00" end="90.00" id="0" nVehContrib="1" flow="120.00" occupancy="1.85" speed="12.64" length="7.00" nVehEntered="1"/>
   <interval begin="90.00" end="120.00" id="0" nVehContrib="1" flow="120.00" occupancy="1.20" speed="19.38" length="7.00" nVehEntered="1"/>
   <interval begin="120.00" end="150.00" id="0" nVehContrib="3" flow="360.00" occupancy="4.32" speed="16.23" length="7.00" nVehEntered="3"/>
   <interval begin="150.00" end="180.00" id="0" nVehContrib="3" flow="360.00" occupancy="3.90" speed="18.08" length="7.00" nVehEntered="3"/>
   <interval begin="180.00" end="210.00" id="0" nVehContrib="1" flow="120.00" occupancy="1.20" speed="19.41" length="7.00" nVehEntered="1"/>
   <interval begin="210.00" end="240.00" id="0" nVehContrib="0" flow="0.00" occupancy="0.00" speed="-1.00" length="-1.00" nVehEntered="0"/>
   <interval begin="240.00" end="270.00" id="0" nVehContrib="1" flow="120.00" occupancy="1.33" speed="17.56" length="7.00" nVehEntered="1"/>
   <interval begin="270.00" end="300.00" id="0" nVehContrib="3" flow="360.00" occupancy="3.64" speed="19.25" length="7.00" nVehEntered="3"/>
   <interval begin="300.00" end="330.00" id="0" nVehContrib="2" flow="240.00" occupancy="2.63" speed="17.87" length="7.00" nVehEntered="2"/>
   <interval begin="330.00" end="360.00" id="0" nVehContrib="1" flow="120.00" occupancy="1.21" speed="19.35" length="7.00" nVehEntered="1"/>
   <interval begin="360.00" end="390.00" id="0" nVehContrib="1" flow="120.00" occupancy="1.25" speed="18.71" length="7.00" nVehEntered="1"/>
   <interval begin="390.00" end="420.00" id="0" nVehContrib="1" flow="120.00" occupancy="1.42" speed="16.41" length="7.00" nVehEntered="1"/>
   <interval begin="420.00" end="450.00" id="0" nVehContrib="0" flow="0.00" occupancy="0.00" speed="-1.00" length="-1.00" nVehEntered="0"/>
   <interval begin="450.00" end="480.00" id="0" nVehContrib="1" flow="120.00" occupancy="3.78" speed="13.30" length="7.00" nVehEntered="1"/>
   <interval begin="480.00" end="510.00" id="0" nVehContrib="3" flow="360.00" occupancy="5.75" speed="11.58" length="7.00" nVehEntered="3"/>
   <interval begin="510.00" end="524.00" id="0" nVehContrib="0" flow="0.00" occupancy="0.47" speed="-1.00" length="-1.00" nVehEntered="0"/>
</detector>
