<?xml version="1.0" encoding="UTF-8"?>

<!-- generated on Friday 13 April 2018 02:21:03 PM IST by SUMO gui Version 0.25.0
<?xml version="1.0" encoding="UTF-8"?>

<configuration xmlns:xsi="http://www.w3.org/2001/XMLSchema-instance" xsi:noNamespaceSchemaLocation="http://sumo.dlr.de/xsd/sumo-gui.exeConfiguration.xsd">

    <input>
        <net-file value="data/cross.net.xml"/>
        <route-files value="data/cross.rou.xml"/>
        <additional-files value="data/cross.det.xml"/>
    </input>

    <output>
        <tripinfo-output value="tripinfo.xml"/>
        <save-state.prefix value="data/state"/>
    </output>

    <time>
        <begin value="0"/>
    </time>

    <report>
        <verbose value="true"/>
        <no-step-log value="true"/>
    </report>

    <emissions>
        <phemlight-path value="data/./PHEMlight/"/>
    </emissions>

    <traci_server>
        <remote-port value="8876"/>
    </traci_server>

</configuration>
-->

<tripinfos xmlns:xsi="http://www.w3.org/2001/XMLSchema-instance" xsi:noNamespaceSchemaLocation="http://sumo.dlr.de/xsd/tripinfo_file.xsd">
    <tripinfo id="left_0" depart="0.00" departLane="52o_0" departPos="5.10" departSpeed="0.00" departDelay="0.00" arrival="91.00" arrivalLane="51i_0" arrivalPos="10.00" arrivalSpeed="11.64" duration="91.00" routeLength="1015.10" waitSteps="0" timeLoss="14.87" rerouteNo="0" devices="tripinfo_left_0" vType="typeWE" vaporized=""/>
    <tripinfo id="right_2" depart="3.00" departLane="51o_0" departPos="5.10" departSpeed="0.00" departDelay="0.00" arrival="94.00" arrivalLane="52i_0" arrivalPos="10.00" arrivalSpeed="11.63" duration="91.00" routeLength="1015.10" waitSteps="0" timeLoss="14.85" rerouteNo="0" devices="tripinfo_right_2" vType="typeWE" vaporized=""/>
    <tripinfo id="left_1" depart="5.00" departLane="52o_0" departPos="5.10" departSpeed="0.00" departDelay="3.00" arrival="97.00" arrivalLane="51i_0" arrivalPos="10.00" arrivalSpeed="11.69" duration="92.00" routeLength="1015.10" waitSteps="0" timeLoss="15.22" rerouteNo="0" devices="tripinfo_left_1" vType="typeWE" vaporized=""/>
    <tripinfo id="right_5" depart="25.00" departLane="51o_0" departPos="5.10" departSpeed="0.00" departDelay="0.00" arrival="117.00" arrivalLane="52i_0" arrivalPos="10.00" arrivalSpeed="11.28" duration="92.00" routeLength="1015.10" waitSteps="0" timeLoss="15.44" rerouteNo="0" devices="tripinfo_right_5" vType="typeWE" vaporized=""/>
    <tripinfo id="down_3" depart="4.00" departLane="54o_0" departPos="7.10" departSpeed="0.00" departDelay="0.00" arrival="134.00" arrivalLane="53i_0" arrivalPos="10.00" arrivalSpeed="11.43" duration="130.00" routeLength="1013.10" waitSteps="29" timeLoss="58.59" rerouteNo="0" devices="tripinfo_down_3" vType="typeNS1" vaporized=""/>
    <tripinfo id="down_4" depart="16.00" departLane="54o_0" departPos="7.10" departSpeed="0.00" departDelay="0.00" arrival="136.00" arrivalLane="53i_0" arrivalPos="10.00" arrivalSpeed="11.27" duration="120.00" routeLength="1013.10" waitSteps="19" timeLoss="48.75" rerouteNo="0" devices="tripinfo_down_4" vType="typeNS1" vaporized=""/>
    <tripinfo id="down_7" depart="31.00" departLane="54o_0" departPos="7.10" departSpeed="0.00" departDelay="0.00" arrival="139.00" arrivalLane="53i_0" arrivalPos="10.00" arrivalSpeed="11.51" duration="108.00" routeLength="1013.10" waitSteps="5" timeLoss="36.08" rerouteNo="0" devices="tripinfo_down_7" vType="typeNS" vaporized=""/>
    <tripinfo id="right_6" depart="31.00" departLane="51o_0" departPos="5.10" departSpeed="0.00" departDelay="0.00" arrival="170.00" arrivalLane="52i_0" arrivalPos="10.00" arrivalSpeed="11.52" duration="139.00" routeLength="1015.10" waitSteps="37" timeLoss="62.95" rerouteNo="0" devices="tripinfo_right_6" vType="typeWE" vaporized=""/>
    <tripinfo id="left_8" depart="67.00" departLane="52o_0" departPos="5.10" departSpeed="0.00" departDelay="0.00" arrival="170.00" arrivalLane="51i_0" arrivalPos="10.00" arrivalSpeed="11.50" duration="103.00" routeLength="1015.10" waitSteps="1" timeLoss="26.47" rerouteNo="0" devices="tripinfo_left_8" vType="typeWE" vaporized=""/>
    <tripinfo id="right_11" depart="81.00" departLane="51o_0" departPos="5.10" departSpeed="0.00" departDelay="0.00" arrival="172.00" arrivalLane="52i_0" arrivalPos="10.00" arrivalSpeed="11.39" duration="91.00" routeLength="1015.10" waitSteps="0" timeLoss="14.97" rerouteNo="0" devices="tripinfo_right_11" vType="typeWE" vaporized=""/>
    <tripinfo id="left_10" depart="74.00" departLane="52o_0" departPos="5.10" departSpeed="0.00" departDelay="0.00" arrival="172.00" arrivalLane="51i_0" arrivalPos="10.00" arrivalSpeed="9.86" duration="98.00" routeLength="1015.10" waitSteps="0" timeLoss="21.88" rerouteNo="0" devices="tripinfo_left_10" vType="typeWE" vaporized=""/>
    <tripinfo id="down_9" depart="72.00" departLane="54o_0" departPos="7.10" departSpeed="0.00" departDelay="0.00" arrival="187.00" arrivalLane="53i_0" arrivalPos="10.00" arrivalSpeed="11.59" duration="115.00" routeLength="1013.10" waitSteps="16" timeLoss="43.80" rerouteNo="0" devices="tripinfo_down_9" vType="typeNS" vaporized=""/>
    <tripinfo id="down_12" depart="85.00" departLane="54o_0" departPos="7.10" departSpeed="0.00" departDelay="0.00" arrival="189.00" arrivalLane="53i_0" arrivalPos="10.00" arrivalSpeed="11.31" duration="104.00" routeLength="1013.10" waitSteps="3" timeLoss="32.91" rerouteNo="0" devices="tripinfo_down_12" vType="typeNS" vaporized=""/>
    <tripinfo id="down_14" depart="98.00" departLane="54o_0" departPos="7.10" departSpeed="0.00" departDelay="0.00" arrival="191.00" arrivalLane="53i_0" arrivalPos="10.00" arrivalSpeed="11.70" duration="93.00" routeLength="1013.10" waitSteps="0" timeLoss="21.72" rerouteNo="0" devices="tripinfo_down_14" vType="typeNS" vaporized=""/>
    <tripinfo id="down_15" depart="104.00" departLane="54o_0" departPos="7.10" departSpeed="0.00" departDelay="1.00" arrival="193.00" arrivalLane="53i_0" arrivalPos="10.00" arrivalSpeed="11.35" duration="89.00" routeLength="1013.10" waitSteps="0" timeLoss="17.94" rerouteNo="0" devices="tripinfo_down_15" vType="typeNS1" vaporized=""/>
    <tripinfo id="down_16" depart="110.00" departLane="54o_0" departPos="7.10" departSpeed="0.00" departDelay="4.00" arrival="199.00" arrivalLane="53i_0" arrivalPos="10.00" arrivalSpeed="10.85" duration="89.00" routeLength="1013.10" waitSteps="0" timeLoss="17.33" rerouteNo="0" devices="tripinfo_down_16" vType="typeNS1" vaporized=""/>
    <tripinfo id="down_21" depart="129.00" departLane="54o_0" departPos="7.10" departSpeed="0.00" departDelay="0.00" arrival="231.00" arrivalLane="53i_0" arrivalPos="10.00" arrivalSpeed="11.48" duration="102.00" routeLength="1013.10" waitSteps="2" timeLoss="30.78" rerouteNo="0" devices="tripinfo_down_21" vType="typeNS" vaporized=""/>
    <tripinfo id="down_23" depart="135.00" departLane="54o_0" departPos="7.10" departSpeed="0.00" departDelay="0.00" arrival="234.00" arrivalLane="53i_0" arrivalPos="10.00" arrivalSpeed="11.64" duration="99.00" routeLength="1013.10" waitSteps="0" timeLoss="27.73" rerouteNo="0" devices="tripinfo_down_23" vType="typeNS1" vaporized=""/>
    <tripinfo id="down_25" depart="149.00" departLane="54o_0" departPos="7.10" departSpeed="0.00" departDelay="0.00" arrival="238.00" arrivalLane="53i_0" arrivalPos="10.00" arrivalSpeed="11.61" duration="89.00" routeLength="1013.10" waitSteps="0" timeLoss="17.40" rerouteNo="0" devices="tripinfo_down_25" vType="typeNS" vaporized=""/>
    <tripinfo id="left_17" depart="120.00" departLane="52o_0" departPos="5.10" departSpeed="0.00" departDelay="0.00" arrival="268.00" arrivalLane="51i_0" arrivalPos="10.00" arrivalSpeed="11.50" duration="148.00" routeLength="1015.10" waitSteps="46" timeLoss="72.11" rerouteNo="0" devices="tripinfo_left_17" vType="typeWE" vaporized=""/>
    <tripinfo id="right_13" depart="92.00" departLane="51o_0" departPos="5.10" departSpeed="0.00" departDelay="0.00" arrival="268.00" arrivalLane="52i_0" arrivalPos="10.00" arrivalSpeed="11.51" duration="176.00" routeLength="1015.10" waitSteps="74" timeLoss="100.15" rerouteNo="0" devices="tripinfo_right_13" vType="typeWE" vaporized=""/>
    <tripinfo id="right_20" depart="126.00" departLane="51o_0" departPos="5.10" departSpeed="0.00" departDelay="0.00" arrival="270.00" arrivalLane="52i_0" arrivalPos="10.00" arrivalSpeed="10.77" duration="144.00" routeLength="1015.10" waitSteps="41" timeLoss="67.96" rerouteNo="0" devices="tripinfo_right_20" vType="typeWE" vaporized=""/>
    <tripinfo id="left_18" depart="125.00" departLane="52o_0" departPos="5.10" departSpeed="0.00" departDelay="2.00" arrival="271.00" arrivalLane="51i_0" arrivalPos="10.00" arrivalSpeed="11.58" duration="146.00" routeLength="1015.10" waitSteps="43" timeLoss="69.43" rerouteNo="0" devices="tripinfo_left_18" vType="typeWE" vaporized=""/>
    <tripinfo id="right_22" depart="132.00" departLane="51o_0" departPos="5.10" departSpeed="0.00" departDelay="0.00" arrival="272.00" arrivalLane="52i_0" arrivalPos="10.00" arrivalSpeed="11.51" duration="140.00" routeLength="1015.10" waitSteps="37" timeLoss="64.12" rerouteNo="0" devices="tripinfo_right_22" vType="typeWE" vaporized=""/>
    <tripinfo id="left_19" depart="131.00" departLane="52o_0" departPos="5.10" departSpeed="0.00" departDelay="6.00" arrival="273.00" arrivalLane="51i_0" arrivalPos="10.00" arrivalSpeed="8.56" duration="142.00" routeLength="1015.10" waitSteps="38" timeLoss="66.01" rerouteNo="0" devices="tripinfo_left_19" vType="typeWE" vaporized=""/>
    <tripinfo id="right_27" depart="172.00" departLane="51o_0" departPos="5.10" departSpeed="0.00" departDelay="1.00" arrival="274.00" arrivalLane="52i_0" arrivalPos="10.00" arrivalSpeed="11.71" duration="102.00" routeLength="1015.10" waitSteps="0" timeLoss="26.13" rerouteNo="0" devices="tripinfo_right_27" vType="typeWE" vaporized=""/>
    <tripinfo id="left_24" depart="147.00" departLane="52o_0" departPos="5.10" departSpeed="0.00" departDelay="0.00" arrival="275.00" arrivalLane="51i_0" arrivalPos="10.00" arrivalSpeed="8.93" duration="128.00" routeLength="1015.10" waitSteps="24" timeLoss="51.94" rerouteNo="0" devices="tripinfo_left_24" vType="typeWE" vaporized=""/>
    <tripinfo id="left_26" depart="159.00" departLane="52o_0" departPos="5.10" departSpeed="0.00" departDelay="0.00" arrival="277.00" arrivalLane="51i_0" arrivalPos="10.00" arrivalSpeed="9.19" duration="118.00" routeLength="1015.10" waitSteps="13" timeLoss="41.99" rerouteNo="0" devices="tripinfo_left_26" vType="typeWE" vaporized=""/>
    <tripinfo id="down_28" depart="220.00" departLane="54o_0" departPos="7.10" departSpeed="0.00" departDelay="0.00" arrival="322.00" arrivalLane="53i_0" arrivalPos="10.00" arrivalSpeed="11.62" duration="102.00" routeLength="1013.10" waitSteps="2" timeLoss="30.13" rerouteNo="0" devices="tripinfo_down_28" vType="typeNS" vaporized=""/>
    <tripinfo id="down_30" depart="241.00" departLane="54o_0" departPos="7.10" departSpeed="0.00" departDelay="0.00" arrival="330.00" arrivalLane="53i_0" arrivalPos="10.00" arrivalSpeed="11.39" duration="89.00" routeLength="1013.10" waitSteps="0" timeLoss="17.24" rerouteNo="0" devices="tripinfo_down_30" vType="typeNS" vaporized=""/>
    <tripinfo id="down_31" depart="248.00" departLane="54o_0" departPos="7.10" departSpeed="0.00" departDelay="0.00" arrival="337.00" arrivalLane="53i_0" arrivalPos="10.00" arrivalSpeed="11.51" duration="89.00" routeLength="1013.10" waitSteps="0" timeLoss="17.49" rerouteNo="0" devices="tripinfo_down_31" vType="typeNS1" vaporized=""/>
    <tripinfo id="down_33" depart="256.00" departLane="54o_0" departPos="7.10" departSpeed="0.00" departDelay="0.00" arrival="365.00" arrivalLane="53i_0" arrivalPos="10.00" arrivalSpeed="11.74" duration="109.00" routeLength="1013.10" waitSteps="9" timeLoss="37.36" rerouteNo="0" devices="tripinfo_down_33" vType="typeNS" vaporized=""/>
    <tripinfo id="down_35" depart="262.00" departLane="54o_0" departPos="7.10" departSpeed="0.00" departDelay="4.00" arrival="368.00" arrivalLane="53i_0" arrivalPos="10.00" arrivalSpeed="11.35" duration="106.00" routeLength="1013.10" waitSteps="4" timeLoss="34.46" rerouteNo="0" devices="tripinfo_down_35" vType="typeNS" vaporized=""/>
    <tripinfo id="down_38" depart="284.00" departLane="54o_0" departPos="7.10" departSpeed="0.00" departDelay="0.00" arrival="374.00" arrivalLane="53i_0" arrivalPos="10.00" arrivalSpeed="11.55" duration="90.00" routeLength="1013.10" waitSteps="0" timeLoss="18.49" rerouteNo="0" devices="tripinfo_down_38" vType="typeNS1" vaporized=""/>
    <tripinfo id="down_40" depart="293.00" departLane="54o_0" departPos="7.10" departSpeed="0.00" departDelay="0.00" arrival="383.00" arrivalLane="53i_0" arrivalPos="10.00" arrivalSpeed="11.60" duration="90.00" routeLength="1013.10" waitSteps="0" timeLoss="18.37" rerouteNo="0" devices="tripinfo_down_40" vType="typeNS" vaporized=""/>
    <tripinfo id="right_29" depart="239.00" departLane="51o_0" departPos="5.10" departSpeed="0.00" departDelay="0.00" arrival="402.00" arrivalLane="52i_0" arrivalPos="10.00" arrivalSpeed="11.41" duration="163.00" routeLength="1015.10" waitSteps="61" timeLoss="86.37" rerouteNo="0" devices="tripinfo_right_29" vType="typeWE" vaporized=""/>
    <tripinfo id="left_32" depart="253.00" departLane="52o_0" departPos="5.10" departSpeed="0.00" departDelay="0.00" arrival="402.00" arrivalLane="51i_0" arrivalPos="10.00" arrivalSpeed="11.67" duration="149.00" routeLength="1015.10" waitSteps="47" timeLoss="72.55" rerouteNo="0" devices="tripinfo_left_32" vType="typeWE" vaporized=""/>
    <tripinfo id="right_39" depart="292.00" departLane="51o_0" departPos="5.10" departSpeed="0.00" departDelay="0.00" arrival="404.00" arrivalLane="52i_0" arrivalPos="10.00" arrivalSpeed="9.09" duration="112.00" routeLength="1015.10" waitSteps="8" timeLoss="36.09" rerouteNo="0" devices="tripinfo_right_39" vType="typeWE" vaporized=""/>
    <tripinfo id="left_34" depart="258.00" departLane="52o_0" departPos="5.10" departSpeed="0.00" departDelay="0.00" arrival="404.00" arrivalLane="51i_0" arrivalPos="10.00" arrivalSpeed="11.57" duration="146.00" routeLength="1015.10" waitSteps="42" timeLoss="70.11" rerouteNo="0" devices="tripinfo_left_34" vType="typeWE" vaporized=""/>
    <tripinfo id="left_36" depart="281.00" departLane="52o_0" departPos="5.10" departSpeed="0.00" departDelay="0.00" arrival="406.00" arrivalLane="51i_0" arrivalPos="10.00" arrivalSpeed="11.37" duration="125.00" routeLength="1015.10" waitSteps="21" timeLoss="49.24" rerouteNo="0" devices="tripinfo_left_36" vType="typeWE" vaporized=""/>
    <tripinfo id="left_37" depart="286.00" departLane="52o_0" departPos="5.10" departSpeed="0.00" departDelay="3.00" arrival="408.00" arrivalLane="51i_0" arrivalPos="10.00" arrivalSpeed="11.52" duration="122.00" routeLength="1015.10" waitSteps="18" timeLoss="46.03" rerouteNo="0" devices="tripinfo_left_37" vType="typeWE" vaporized=""/>
    <tripinfo id="left_41" depart="296.00" departLane="52o_0" departPos="5.10" departSpeed="0.00" departDelay="0.00" arrival="410.00" arrivalLane="51i_0" arrivalPos="10.00" arrivalSpeed="11.45" duration="114.00" routeLength="1015.10" waitSteps="9" timeLoss="38.16" rerouteNo="0" devices="tripinfo_left_41" vType="typeWE" vaporized=""/>
    <tripinfo id="left_42" depart="302.00" departLane="52o_0" departPos="5.10" departSpeed="0.00" departDelay="4.00" arrival="412.00" arrivalLane="51i_0" arrivalPos="10.00" arrivalSpeed="11.33" duration="110.00" routeLength="1015.10" waitSteps="6" timeLoss="34.09" rerouteNo="0" devices="tripinfo_left_42" vType="typeWE" vaporized=""/>
    <tripinfo id="left_43" depart="343.00" departLane="52o_0" departPos="5.10" departSpeed="0.00" departDelay="0.00" arrival="434.00" arrivalLane="51i_0" arrivalPos="10.00" arrivalSpeed="11.53" duration="91.00" routeLength="1015.10" waitSteps="0" timeLoss="14.58" rerouteNo="0" devices="tripinfo_left_43" vType="typeWE" vaporized=""/>
    <tripinfo id="right_46" depart="352.00" departLane="51o_0" departPos="5.10" departSpeed="0.00" departDelay="0.00" arrival="444.00" arrivalLane="52i_0" arrivalPos="10.00" arrivalSpeed="11.39" duration="92.00" routeLength="1015.10" waitSteps="0" timeLoss="15.39" rerouteNo="0" devices="tripinfo_right_46" vType="typeWE" vaporized=""/>
    <tripinfo id="left_47" depart="357.00" departLane="52o_0" departPos="5.10" departSpeed="0.00" departDelay="0.00" arrival="448.00" arrivalLane="51i_0" arrivalPos="10.00" arrivalSpeed="11.63" duration="91.00" routeLength="1015.10" waitSteps="0" timeLoss="14.90" rerouteNo="0" devices="tripinfo_left_47" vType="typeWE" vaporized=""/>
    <tripinfo id="right_48" depart="389.00" departLane="51o_0" departPos="5.10" departSpeed="0.00" departDelay="0.00" arrival="479.00" arrivalLane="52i_0" arrivalPos="10.00" arrivalSpeed="10.78" duration="90.00" routeLength="1015.10" waitSteps="0" timeLoss="13.89" rerouteNo="0" devices="tripinfo_right_48" vType="typeWE" vaporized=""/>
    <tripinfo id="right_49" depart="402.00" departLane="51o_0" departPos="5.10" departSpeed="0.00" departDelay="0.00" arrival="494.00" arrivalLane="52i_0" arrivalPos="10.00" arrivalSpeed="11.61" duration="92.00" routeLength="1015.10" waitSteps="0" timeLoss="15.94" rerouteNo="0" devices="tripinfo_right_49" vType="typeWE" vaporized=""/>
    <tripinfo id="left_50" depart="414.00" departLane="52o_0" departPos="5.10" departSpeed="0.00" departDelay="0.00" arrival="506.00" arrivalLane="51i_0" arrivalPos="10.00" arrivalSpeed="11.17" duration="92.00" routeLength="1015.10" waitSteps="0" timeLoss="15.30" rerouteNo="0" devices="tripinfo_left_50" vType="typeWE" vaporized=""/>
    <tripinfo id="left_51" depart="430.00" departLane="52o_0" departPos="5.10" departSpeed="0.00" departDelay="0.00" arrival="521.00" arrivalLane="51i_0" arrivalPos="10.00" arrivalSpeed="11.72" duration="91.00" routeLength="1015.10" waitSteps="0" timeLoss="14.42" rerouteNo="0" devices="tripinfo_left_51" vType="typeWE" vaporized=""/>
</tripinfos>
