n -t * -s 0  -x 0 -y 0 -Z 0 -z 20  -v circle -c black
n -t * -s 1  -x 0 -y 0 -Z 0 -z 20  -v circle -c black
n -t * -s 2  -x 0 -y 0 -Z 0 -z 20  -v circle -c black
n -t * -s 3  -x 0 -y 0 -Z 0 -z 20  -v circle -c black
n -t * -s 4  -x 0 -y 0 -Z 0 -z 20  -v circle -c black
n -t * -s 5  -x 0 -y 0 -Z 0 -z 20  -v circle -c black
n -t * -s 6  -x 0 -y 0 -Z 0 -z 20  -v circle -c black
n -t * -s 7  -x 0 -y 0 -Z 0 -z 20  -v circle -c black
n -t * -s 8  -x 0 -y 0 -Z 0 -z 20  -v circle -c black
n -t * -s 9  -x 0 -y 0 -Z 0 -z 20  -v circle -c black
n -t * -s 10  -x 0 -y 0 -Z 0 -z 20  -v circle -c black
n -t * -s 11  -x 0 -y 0 -Z 0 -z 20  -v circle -c black
n -t * -s 12  -x 0 -y 0 -Z 0 -z 20  -v circle -c black
n -t * -s 13  -x 0 -y 0 -Z 0 -z 20  -v circle -c black
n -t * -s 14  -x 0 -y 0 -Z 0 -z 20  -v circle -c black
n -t * -s 15  -x 0 -y 0 -Z 0 -z 20  -v circle -c black
n -t * -s 16  -x 0 -y 0 -Z 0 -z 20  -v circle -c black
n -t * -s 17  -x 0 -y 0 -Z 0 -z 20  -v circle -c black
n -t * -s 18  -x 0 -y 0 -Z 0 -z 20  -v circle -c black
n -t * -s 19  -x 0 -y 0 -Z 0 -z 20  -v circle -c black
n -t * -s 20  -x 0 -y 0 -Z 0 -z 20  -v circle -c black
n -t * -s 21  -x 0 -y 0 -Z 0 -z 20  -v circle -c black
n -t * -s 22  -x 0 -y 0 -Z 0 -z 20  -v circle -c black
n -t * -s 23  -x 0 -y 0 -Z 0 -z 20  -v circle -c black
n -t * -s 24  -x 0 -y 0 -Z 0 -z 20  -v circle -c black
n -t * -s 25  -x 0 -y 0 -Z 0 -z 20  -v circle -c black
n -t * -s 26  -x 0 -y 0 -Z 0 -z 20  -v circle -c black
n -t * -s 27  -x 0 -y 0 -Z 0 -z 20  -v circle -c black
n -t * -s 28  -x 0 -y 0 -Z 0 -z 20  -v circle -c black
n -t * -s 29  -x 0 -y 0 -Z 0 -z 20  -v circle -c black
n -t * -s 30  -x 0 -y 0 -Z 0 -z 20  -v circle -c black
n -t * -s 31  -x 0 -y 0 -Z 0 -z 20  -v circle -c black
n -t * -s 32  -x 0 -y 0 -Z 0 -z 20  -v circle -c black
n -t * -s 33  -x 0 -y 0 -Z 0 -z 20  -v circle -c black
n -t * -s 34  -x 0 -y 0 -Z 0 -z 20  -v circle -c black
n -t * -s 35  -x 0 -y 0 -Z 0 -z 20  -v circle -c black
n -t * -s 36  -x 0 -y 0 -Z 0 -z 20  -v circle -c black
n -t * -s 37  -x 0 -y 0 -Z 0 -z 20  -v circle -c black
n -t * -s 38  -x 0 -y 0 -Z 0 -z 20  -v circle -c black
n -t * -s 39  -x 0 -y 0 -Z 0 -z 20  -v circle -c black
n -t * -s 40  -x 0 -y 0 -Z 0 -z 20  -v circle -c black
V -t * -v 1.0a5 -a 0
W -t * -x 5067 -y 4960
A -t * -n 1 -p 0 -o 0x7fffffff -c 30 -a 1
A -t * -h 1 -m 1073741823 -s 0
n -t 4.000000 -s 0 -x 3789.090000 -y 4959.830000 -U 0.000000 -V 0.000000 -T 0.000000
n -t 4.100000 -s 0 -x 3789.090000 -y 4959.830000 -U -0.176777 -V -0.176777 -T 0.113137
n -t 4.200000 -s 0 -x 3789.072322 -y 4959.812322 -U -0.192281 -V -0.450697 -T 0.116092
n -t 4.300000 -s 0 -x 3789.053094 -y 4959.767253 -U -0.295333 -V -0.689404 -T 0.112057
n -t 4.400000 -s 0 -x 3789.023561 -y 4959.698312 -U -0.397000 -V -0.895986 -T 0.109725
n -t 4.500000 -s 0 -x 3788.983861 -y 4959.608714 -U -0.499933 -V -1.101892 -T 0.107736
n -t 4.600000 -s 0 -x 3788.933868 -y 4959.498524 -U -0.611298 -V -1.325864 -T 0.104479
n -t 4.700000 -s 0 -x 3788.872738 -y 4959.365938 -U -0.701726 -V -1.504387 -T 0.103655
n -t 4.800000 -s 0 -x 3788.802565 -y 4959.215499 -U -0.808832 -V -1.719241 -T 0.102079
n -t 4.900000 -s 0 -x 3788.721682 -y 4959.043575 -U -0.898889 -V -1.897893 -T 0.101995
n -t 5.000000 -s 0 -x 3788.631793 -y 4958.853786 -U -0.975873 -V -2.049530 -T 0.104310
n -t 5.100000 -s 0 -x 3788.534206 -y 4958.648833 -U -1.011760 -V -2.318888 -T 0.102995
n -t 5.200000 -s 0 -x 3788.433030 -y 4958.416944 -U -1.204013 -V -2.416682 -T 0.102183
n -t 5.300000 -s 0 -x 3788.312628 -y 4958.175276 -U -1.216851 -V -2.632351 -T 0.100775
n -t 5.400000 -s 0 -x 3788.190943 -y 4957.912041 -U -1.305411 -V -2.811743 -T 0.100308
n -t 5.500000 -s 0 -x 3788.060402 -y 4957.630866 -U -1.391276 -V -2.981350 -T 0.100916
n -t 5.600000 -s 0 -x 3787.921275 -y 4957.332731 -U -1.489717 -V -3.178182 -T 0.101546
n -t 5.700000 -s 0 -x 3787.772303 -y 4957.014913 -U -1.605181 -V -3.411201 -T 0.101112
n -t 5.800000 -s 0 -x 3787.611785 -y 4956.673793 -U -1.588814 -V -3.572642 -T 0.101827
n -t 5.900000 -s 0 -x 3787.452903 -y 4956.316529 -U -1.804557 -V -3.714899 -T 0.101356
n -t 6.000000 -s 0 -x 3787.272448 -y 4955.945039 -U -1.802944 -V -3.903766 -T 0.101194
n -t 6.000000 -s 1 -x 2180.850000 -y 3183.420000 -U 0.000000 -V 0.000000 -T 0.000000
n -t 6.100000 -s 0 -x 3787.092153 -y 4955.554662 -U -1.917242 -V -4.137364 -T 0.100224
n -t 6.100000 -s 1 -x 2180.850000 -y 3183.420000 -U -0.111803 -V -0.223607 -T 0.089443
n -t 6.200000 -s 0 -x 3786.900429 -y 4955.140926 -U -1.978045 -V -4.351521 -T 0.101327
n -t 6.200000 -s 1 -x 2180.840000 -y 3183.400000 -U -0.098058 -V -0.490290 -T 0.101980
n -t 6.300000 -s 0 -x 3786.702625 -y 4954.705774 -U -2.113821 -V -4.431688 -T 0.100588
n -t 6.300000 -s 1 -x 2180.830194 -y 3183.350971 -U -0.199785 -V -0.702130 -T 0.101080
n -t 6.400000 -s 0 -x 3786.491242 -y 4954.262605 -U -2.101818 -V -4.602821 -T 0.100505
n -t 6.400000 -s 1 -x 2180.810216 -y 3183.280758 -U -0.278628 -V -0.929121 -T 0.108444
n -t 6.500000 -s 0 -x 3786.281061 -y 4953.802323 -U -2.268213 -V -4.734734 -T 0.101869
n -t 6.500000 -s 1 -x 2180.782353 -y 3183.187846 -U -0.320335 -V -1.166827 -T 0.100997
n -t 6.600000 -s 0 -x 3786.054239 -y 4953.328849 -U -2.337689 -V -4.978475 -T 0.100201
n -t 6.600000 -s 2 -x 3789.090000 -y 4959.830000 -U 0.000000 -V 0.000000 -T 0.000000
n -t 6.600000 -s 1 -x 2180.750319 -y 3183.071163 -U -0.398227 -V -1.394244 -T 0.101247
n -t 6.700000 -s 0 -x 3785.820470 -y 4952.831002 -U -2.371935 -V -5.139020 -T 0.101382
n -t 6.700000 -s 2 -x 3789.090000 -y 4959.830000 -U -0.144222 -V -0.216333 -T 0.138675
n -t 6.700000 -s 1 -x 2180.710497 -y 3182.931739 -U -0.395903 -V -1.581190 -T 0.102289
n -t 6.800000 -s 0 -x 3785.583277 -y 4952.317100 -U -2.524995 -V -5.354512 -T 0.100308
n -t 6.800000 -s 2 -x 3789.075578 -y 4959.808367 -U -0.233743 -V -0.442000 -T 0.109427
n -t 6.800000 -s 1 -x 2180.670906 -y 3182.773620 -U -0.496919 -V -1.792393 -T 0.102444
n -t 6.900000 -s 0 -x 3785.330777 -y 4951.781649 -U -2.594144 -V -5.587130 -T 0.100525
n -t 6.900000 -s 2 -x 3789.052203 -y 4959.764167 -U -0.302693 -V -0.697121 -T 0.106390
n -t 6.900000 -s 1 -x 2180.621214 -y 3182.594381 -U -0.593923 -V -1.982966 -T 0.103068
n -t 7.000000 -s 0 -x 3785.071363 -y 4951.222936 -U -2.614731 -V -5.731769 -T 0.099958
n -t 7.000000 -s 2 -x 3789.021934 -y 4959.694455 -U -0.405770 -V -0.913975 -T 0.103345
n -t 7.000000 -s 1 -x 2180.561822 -y 3182.396084 -U -0.609296 -V -2.228196 -T 0.101465
n -t 7.100000 -s 0 -x 3784.810000 -y 4950.650000 -U -2.765671 -V -5.926438 -T 0.101241
n -t 7.100000 -s 2 -x 3788.981357 -y 4959.603057 -U -0.508712 -V -1.119871 -T 0.100955
n -t 7.100000 -s 1 -x 2180.500893 -y 3182.173264 -U -0.710651 -V -2.438560 -T 0.099757
n -t 7.200000 -s 0 -x 3784.533433 -y 4950.057356 -U -2.829104 -V -6.062365 -T 0.100185
n -t 7.200000 -s 2 -x 3788.930486 -y 4959.491070 -U -0.661509 -V -1.323936 -T 0.106553
n -t 7.200000 -s 1 -x 2180.430000 -y 3181.930000 -U -0.704528 -V -2.616819 -T 0.099357
n -t 7.300000 -s 0 -x 3784.250523 -y 4949.451120 -U -2.906470 -V -6.213858 -T 0.099957
n -t 7.300000 -s 2 -x 3788.864335 -y 4959.358676 -U -0.716942 -V -1.530390 -T 0.103684
n -t 7.300000 -s 1 -x 2180.360000 -y 3181.670000 -U -0.791197 -V -2.769189 -T 0.101113
n -t 7.400000 -s 0 -x 3783.960000 -y 4948.830000 -U -2.971037 -V -6.338213 -T 0.100975
n -t 7.400000 -s 2 -x 3788.792641 -y 4959.205637 -U -0.707047 -V -1.709557 -T 0.102739
n -t 7.400000 -s 1 -x 2180.280880 -y 3181.393081 -U -0.890383 -V -2.969380 -T 0.102069
n -t 7.500000 -s 0 -x 3783.662896 -y 4948.196179 -U -3.013394 -V -6.528059 -T 0.100517
n -t 7.500000 -s 2 -x 3788.721936 -y 4959.034682 -U -0.913570 -V -1.835181 -T 0.100634
n -t 7.500000 -s 1 -x 2180.191842 -y 3181.096143 -U -0.905334 -V -3.214960 -T 0.101445
n -t 7.600000 -s 0 -x 3783.361557 -y 4947.543373 -U -3.116027 -V -6.634703 -T 0.099985
n -t 7.600000 -s 2 -x 3788.630579 -y 4958.851164 -U -0.984749 -V -2.067455 -T 0.102137
n -t 7.600000 -s 1 -x 2180.101309 -y 3180.774647 -U -0.898905 -V -3.392944 -T 0.101578
n -t 7.700000 -s 0 -x 3783.050000 -y 4946.880000 -U -3.184888 -V -6.867415 -T 0.100474
n -t 7.700000 -s 2 -x 3788.532104 -y 4958.644418 -U -1.100143 -V -2.300475 -T 0.101900
n -t 7.700000 -s 1 -x 2180.011418 -y 3180.435353 -U -1.000358 -V -3.603732 -T 0.101382
n -t 7.800000 -s 0 -x 3782.731511 -y 4946.193259 -U -3.308809 -V -7.019215 -T 0.100190
n -t 7.800000 -s 2 -x 3788.422090 -y 4958.414371 -U -1.121520 -V -2.445055 -T 0.099945
n -t 7.800000 -s 1 -x 2179.911382 -y 3180.074979 -U -1.108908 -V -3.832809 -T 0.100443
n -t 7.900000 -s 0 -x 3782.400630 -y 4945.491337 -U -3.373484 -V -7.242907 -T 0.100973
n -t 7.900000 -s 2 -x 3788.310000 -y 4958.170000 -U -1.181744 -V -2.560445 -T 0.101545
n -t 7.900000 -s 1 -x 2179.800491 -y 3179.691699 -U -1.182532 -V -4.040510 -T 0.101893
n -t 8.000000 -s 0 -x 3782.063282 -y 4944.767046 -U -3.428043 -V -7.460069 -T 0.100139
n -t 8.000000 -s 2 -x 3788.191826 -y 4957.913955 -U -1.292724 -V -2.784558 -T 0.101975
n -t 8.000000 -s 1 -x 2179.682238 -y 3179.287648 -U -1.114434 -V -4.246191 -T 0.100713
n -t 8.000000 -s 3 -x 2341.100000 -y 3528.420000 -U 0.000000 -V 0.000000 -T 0.000000
n -t 8.100000 -s 0 -x 3781.720478 -y 4944.021039 -U -3.574520 -V -7.645679 -T 0.100846
n -t 8.100000 -s 2 -x 3788.062553 -y 4957.635500 -U -1.395415 -V -2.990454 -T 0.102158
n -t 8.100000 -s 1 -x 2179.570795 -y 3178.863029 -U -1.289831 -V -4.467531 -T 0.101405
n -t 8.100000 -s 3 -x 2341.100000 -y 3528.420000 -U 0.260000 -V 0.000000 -T 0.076923
n -t 8.200000 -s 0 -x 3781.363026 -y 4943.256472 -U -3.608408 -V -7.817384 -T 0.100605
n -t 8.200000 -s 2 -x 3787.923012 -y 4957.336454 -U -1.493897 -V -3.187267 -T 0.102424
n -t 8.200000 -s 1 -x 2179.441812 -y 3178.416275 -U -1.298970 -V -4.693568 -T 0.101474
n -t 8.200000 -s 3 -x 2341.120000 -y 3528.420000 -U 0.473523 -V -0.189409 -T 0.105591
n -t 8.300000 -s 0 -x 3781.002185 -y 4942.474733 -U -3.805146 -V -7.912602 -T 0.100439
n -t 8.300000 -s 2 -x 3787.773622 -y 4957.017728 -U -1.540256 -V -3.386150 -T 0.099738
n -t 8.300000 -s 1 -x 2179.311915 -y 3177.946919 -U -1.413053 -V -4.848276 -T 0.100431
n -t 8.300000 -s 3 -x 2341.167352 -y 3528.401059 -U 0.729950 -V -0.211597 -T 0.099524
n -t 8.400000 -s 0 -x 3780.621670 -y 4941.683473 -U -3.690111 -V -8.175817 -T 0.100721
n -t 8.400000 -s 2 -x 3787.620000 -y 4956.680000 -U -1.695187 -V -3.490092 -T 0.100284
n -t 8.400000 -s 1 -x 2179.170609 -y 3177.462091 -U -1.384794 -V -5.043337 -T 0.101538
n -t 8.400000 -s 3 -x 2341.240000 -y 3528.380000 -U 0.980581 -V -0.196116 -T 0.101980
n -t 8.500000 -s 0 -x 3780.252659 -y 4940.865891 -U -3.907358 -V -8.317972 -T 0.100492
n -t 8.500000 -s 2 -x 3787.450481 -y 4956.330991 -U -1.674387 -V -3.643697 -T 0.101817
n -t 8.500000 -s 1 -x 2179.032130 -y 3176.957757 -U -1.494455 -V -5.282680 -T 0.101796
n -t 8.500000 -s 3 -x 2341.338058 -y 3528.360388 -U 1.177115 -V -0.389872 -T 0.103594
n -t 8.600000 -s 0 -x 3779.861923 -y 4940.034094 -U -4.015238 -V -8.532454 -T 0.100099
n -t 8.600000 -s 2 -x 3787.283043 -y 4955.966621 -U -1.732630 -V -3.771007 -T 0.099873
n -t 8.600000 -s 1 -x 2178.882685 -y 3176.429489 -U -1.517989 -V -5.463022 -T 0.100583
n -t 8.600000 -s 3 -x 2341.455770 -y 3528.321401 -U 1.397268 -V -0.304207 -T 0.103223
n -t 8.700000 -s 0 -x 3779.460399 -y 4939.180849 -U -4.066988 -V -8.729061 -T 0.100910
n -t 8.700000 -s 2 -x 3787.110000 -y 4955.590000 -U -1.870688 -V -3.938290 -T 0.101567
n -t 8.700000 -s 1 -x 2178.730886 -y 3175.883187 -U -1.604141 -V -5.615366 -T 0.100294
n -t 8.700000 -s 3 -x 2341.595496 -y 3528.290981 -U 1.576052 -V -0.488426 -T 0.104377
n -t 8.800000 -s 0 -x 3779.053701 -y 4938.307943 -U -4.126081 -V -8.855978 -T 0.100265
n -t 8.800000 -s 2 -x 3786.922931 -y 4955.196171 -U -1.909475 -V -4.118920 -T 0.101039
n -t 8.800000 -s 1 -x 2178.570472 -y 3175.321651 -U -1.587745 -V -5.754995 -T 0.101069
n -t 8.800000 -s 3 -x 2341.753102 -y 3528.242138 -U 1.833966 -V -0.413483 -T 0.101909
n -t 8.900000 -s 0 -x 3778.641092 -y 4937.422345 -U -4.182285 -V -9.061396 -T 0.100685
n -t 8.900000 -s 2 -x 3786.731984 -y 4954.784279 -U -2.007385 -V -4.316017 -T 0.100620
n -t 8.900000 -s 1 -x 2178.411697 -y 3174.746151 -U -1.699303 -V -5.900167 -T 0.101040
n -t 8.900000 -s 3 -x 2341.936498 -y 3528.200790 -U 2.048580 -V -0.583284 -T 0.104219
n -t 9.000000 -s 0 -x 3778.222864 -y 4936.516205 -U -4.310165 -V -9.222520 -T 0.100429
n -t 9.000000 -s 2 -x 3786.531245 -y 4954.352677 -U -2.084791 -V -4.467499 -T 0.101327
n -t 9.000000 -s 1 -x 2178.241767 -y 3174.156134 -U -1.691809 -V -6.068590 -T 0.101528
n -t 9.000000 -s 3 -x 2342.141356 -y 3528.142461 -U 2.276580 -V -0.621918 -T 0.100433
n -t 9.000000 -s 4 -x 3154.290000 -y 3316.660000 -U 0.000000 -V 0.000000 -T 0.000000
n -t 9.100000 -s 0 -x 3777.791848 -y 4935.593953 -U -4.387756 -V -9.373905 -T 0.100700
n -t 9.100000 -s 2 -x 3786.322766 -y 4953.905927 -U -2.195941 -V -4.691507 -T 0.101444
n -t 9.100000 -s 1 -x 2178.072586 -y 3173.549275 -U -1.802927 -V -6.213723 -T 0.101272
n -t 9.100000 -s 3 -x 2342.369014 -y 3528.080269 -U 2.503724 -V -0.700976 -T 0.100245
n -t 9.100000 -s 4 -x 3154.290000 -y 3316.660000 -U -0.111803 -V -0.223607 -T 0.089443
n -t 9.200000 -s 0 -x 3777.353072 -y 4934.656563 -U -4.720903 -V -9.445987 -T 0.100208
n -t 9.200000 -s 2 -x 3786.103172 -y 4953.436777 -U -2.204660 -V -4.907533 -T 0.101227
n -t 9.200000 -s 1 -x 2177.892293 -y 3172.927903 -U -1.794383 -V -6.476001 -T 0.101591
n -t 9.200000 -s 3 -x 2342.619387 -y 3528.010172 -U 2.726058 -V -0.681693 -T 0.102937
n -t 9.200000 -s 4 -x 3154.280000 -y 3316.640000 -U -0.096097 -V -0.480485 -T 0.104062
n -t 9.300000 -s 0 -x 3776.880982 -y 4933.711964 -U -4.780710 -V -9.561428 -T 0.100609
n -t 9.300000 -s 2 -x 3785.882706 -y 4952.946023 -U -2.391519 -V -4.986135 -T 0.101486
n -t 9.300000 -s 1 -x 2177.712855 -y 3172.280303 -U -1.898246 -V -6.696138 -T 0.101596
n -t 9.300000 -s 3 -x 2342.891992 -y 3527.942002 -U 2.837237 -V -0.807827 -T 0.101510
n -t 9.300000 -s 4 -x 3154.270390 -y 3316.591952 -U -0.201763 -V -0.711963 -T 0.101061
n -t 9.400000 -s 0 -x 3776.402911 -y 4932.755821 -U -5.020275 -V -9.641252 -T 0.100176
n -t 9.400000 -s 2 -x 3785.643554 -y 4952.447410 -U -2.402294 -V -5.202104 -T 0.101384
n -t 9.400000 -s 1 -x 2177.523030 -y 3171.610689 -U -1.921808 -V -6.876500 -T 0.100442
n -t 9.400000 -s 3 -x 2343.175716 -y 3527.861220 -U 3.069169 -V -0.793159 -T 0.102400
n -t 9.400000 -s 4 -x 3154.250214 -y 3316.520755 -U -0.309555 -V -0.929825 -T 0.097605
n -t 9.500000 -s 0 -x 3775.900883 -y 4931.791696 -U -5.008404 -V -9.816124 -T 0.100009
n -t 9.500000 -s 2 -x 3785.403325 -y 4951.927200 -U -2.520736 -V -5.345464 -T 0.100496
n -t 9.500000 -s 1 -x 2177.330849 -y 3170.923039 -U -1.987381 -V -7.055439 -T 0.101062
n -t 9.500000 -s 3 -x 2343.482633 -y 3527.781904 -U 3.299754 -V -0.898902 -T 0.102240
n -t 9.500000 -s 4 -x 3154.220000 -y 3316.430000 -U -0.288617 -V -1.154470 -T 0.103944
n -t 9.600000 -s 0 -x 3775.400043 -y 4930.810084 -U -4.972509 -V -9.845560 -T 0.100561
n -t 9.600000 -s 2 -x 3785.151251 -y 4951.392653 -U -2.594169 -V -5.487730 -T 0.100707
n -t 9.600000 -s 1 -x 2177.132111 -y 3170.217495 -U -1.999568 -V -7.197404 -T 0.101077
n -t 9.600000 -s 3 -x 2343.812608 -y 3527.692014 -U 3.495993 -V -0.900074 -T 0.102229
n -t 9.600000 -s 4 -x 3154.191138 -y 3316.314553 -U -0.423951 -V -1.386638 -T 0.097035
n -t 9.700000 -s 0 -x 3774.902792 -y 4929.825528 -U -5.030318 -V -9.759934 -T 0.099952
n -t 9.700000 -s 2 -x 3784.891834 -y 4950.843880 -U -2.577706 -V -5.649737 -T 0.101576
n -t 9.700000 -s 1 -x 2176.932154 -y 3169.497755 -U -2.090786 -V -7.369139 -T 0.101471
n -t 9.700000 -s 3 -x 2344.162208 -y 3527.602006 -U 3.613593 -V -1.002220 -T 0.101780
n -t 9.700000 -s 4 -x 3154.150000 -y 3316.180000 -U -0.476861 -V -1.621328 -T 0.104852
n -t 9.800000 -s 0 -x 3774.400000 -y 4928.850000 -U -4.990539 -V -9.881266 -T 0.100190
n -t 9.800000 -s 2 -x 3784.634064 -y 4950.278906 -U -2.725649 -V -5.757407 -T 0.100550
n -t 9.800000 -s 1 -x 2176.723076 -y 3168.760841 -U -2.119663 -V -7.568793 -T 0.100523
n -t 9.800000 -s 3 -x 2344.523567 -y 3527.501784 -U 3.839063 -V -1.011186 -T 0.100658
n -t 9.800000 -s 4 -x 3154.102314 -y 3316.017867 -U -0.613908 -V -1.850842 -T 0.101504
n -t 9.900000 -s 0 -x 3773.900946 -y 4927.861873 -U -5.008187 -V -9.816235 -T 0.100025
n -t 9.900000 -s 2 -x 3784.361499 -y 4949.703166 -U -2.709379 -V -5.919406 -T 0.100207
n -t 9.900000 -s 1 -x 2176.511110 -y 3168.003962 -U -2.178432 -V -7.822329 -T 0.101499
n -t 9.900000 -s 3 -x 2344.907473 -y 3527.400666 -U 4.020811 -V -1.105430 -T 0.100111
n -t 9.900000 -s 4 -x 3154.040923 -y 3315.832783 -U -0.491096 -V -2.052054 -T 0.103693
n -t 10.000000 -s 0 -x 3773.400127 -y 4926.880250 -U -5.064990 -V -9.832064 -T 0.100716
n -t 10.000000 -s 2 -x 3784.090561 -y 4949.111225 -U -2.897995 -V -6.096238 -T 0.100263
n -t 10.000000 -s 1 -x 2176.293266 -y 3167.221729 -U -2.218616 -V -7.966846 -T 0.100633
n -t 10.000000 -s 3 -x 2345.309554 -y 3527.290122 -U 4.179034 -V -1.094567 -T 0.100608
n -t 10.000000 -s 4 -x 3153.991813 -y 3315.627578 -U -0.698155 -V -2.212460 -T 0.102862
+ -t 10.000000000 -s 0 -d -1 -p tcp -e 40 -c 2 -a 0 -i 0 -k AGT 
- -t 10.000000000 -s 0 -d -1 -p tcp -e 40 -c 2 -a 0 -i 0 -k AGT
h -t 10.000000000 -s 0 -d -1 -p tcp -e 40 -c 2 -a 0 -i 0 -k AGT
+ -t 10.000000000 -s 0 -d -1 -p AODV -e 48 -c 2 -a 0 -i 0 -k RTR 
- -t 10.000000000 -s 0 -d -1 -p AODV -e 48 -c 2 -a 0 -i 0 -k RTR
h -t 10.000000000 -s 0 -d -1 -p AODV -e 48 -c 2 -a 0 -i 0 -k RTR
r -t 10.000988082 -s 2 -d -1 -p AODV -e 48 -c 2 -a 0 -i 0 -k RTR
r -t 10.000988122 -s 15 -d -1 -p AODV -e 48 -c 2 -a 0 -i 0 -k RTR
r -t 10.000988122 -s 19 -d -1 -p AODV -e 48 -c 2 -a 0 -i 0 -k RTR
+ -t 10.001869309 -s 2 -d -1 -p AODV -e 48 -c 2 -a 0 -i 0 -k RTR 
- -t 10.001869309 -s 2 -d -1 -p AODV -e 48 -c 2 -a 0 -i 0 -k RTR
h -t 10.001869309 -s 2 -d -1 -p AODV -e 48 -c 2 -a 0 -i 0 -k RTR
r -t 10.002977348 -s 15 -d -1 -p AODV -e 48 -c 2 -a 0 -i 0 -k RTR
r -t 10.002977348 -s 19 -d -1 -p AODV -e 48 -c 2 -a 0 -i 0 -k RTR
r -t 10.002977391 -s 0 -d -1 -p AODV -e 48 -c 2 -a 0 -i 0 -k RTR
+ -t 10.005399855 -s 15 -d -1 -p AODV -e 48 -c 2 -a 0 -i 0 -k RTR 
- -t 10.005399855 -s 15 -d -1 -p AODV -e 48 -c 2 -a 0 -i 0 -k RTR
h -t 10.005399855 -s 15 -d -1 -p AODV -e 48 -c 2 -a 0 -i 0 -k RTR
r -t 10.006587855 -s 19 -d -1 -p AODV -e 48 -c 2 -a 0 -i 0 -k RTR
r -t 10.006587895 -s 2 -d -1 -p AODV -e 48 -c 2 -a 0 -i 0 -k RTR
r -t 10.006587977 -s 0 -d -1 -p AODV -e 48 -c 2 -a 0 -i 0 -k RTR
+ -t 10.008979676 -s 19 -d -1 -p AODV -e 48 -c 2 -a 0 -i 0 -k RTR 
- -t 10.008979676 -s 19 -d -1 -p AODV -e 48 -c 2 -a 0 -i 0 -k RTR
h -t 10.008979676 -s 19 -d -1 -p AODV -e 48 -c 2 -a 0 -i 0 -k RTR
r -t 10.010187676 -s 15 -d -1 -p AODV -e 48 -c 2 -a 0 -i 0 -k RTR
r -t 10.010187716 -s 2 -d -1 -p AODV -e 48 -c 2 -a 0 -i 0 -k RTR
r -t 10.010187798 -s 0 -d -1 -p AODV -e 48 -c 2 -a 0 -i 0 -k RTR
n -t 10.100000 -s 0 -x 3772.893628 -y 4925.897044 -U -5.030755 -V -9.759708 -T 0.100110
n -t 10.100000 -s 2 -x 3783.800761 -y 4948.501601 -U -2.906297 -V -6.313156 -T 0.100045
n -t 10.100000 -s 1 -x 2176.071405 -y 3166.425044 -U -2.296957 -V -8.090247 -T 0.100744
n -t 10.100000 -s 3 -x 2345.727458 -y 3527.180666 -U 4.340199 -V -1.110439 -T 0.099660
n -t 10.100000 -s 4 -x 3153.921998 -y 3315.406332 -U -0.706969 -V -2.418800 -T 0.101840
n -t 10.200000 -s 0 -x 3772.390553 -y 4924.921073 -U -4.999218 -V -9.798358 -T 0.100126
n -t 10.200000 -s 2 -x 3783.510131 -y 4947.870286 -U -3.004644 -V -6.510070 -T 0.099889
n -t 10.200000 -s 1 -x 2175.841709 -y 3165.616020 -U -2.399705 -V -8.300061 -T 0.100725
n -t 10.200000 -s 3 -x 2346.160000 -y 3527.070000 -U 4.542100 -V -1.283637 -T 0.101275
n -t 10.200000 -s 4 -x 3153.851301 -y 3315.164452 -U -0.802236 -V -2.609467 -T 0.101343
n -t 10.300000 -s 0 -x 3771.890631 -y 4923.941237 -U -4.990589 -V -9.881241 -T 0.100315
n -t 10.300000 -s 2 -x 3783.210000 -y 4947.220000 -U -3.077992 -V -6.652433 -T 0.100715
n -t 10.300000 -s 1 -x 2175.601739 -y 3164.786013 -U -2.402459 -V -8.507279 -T 0.100621
n -t 10.300000 -s 3 -x 2346.614210 -y 3526.941636 -U 4.782365 -V -1.197450 -T 0.101579
n -t 10.300000 -s 4 -x 3153.771078 -y 3314.903505 -U -0.791884 -V -2.768992 -T 0.102386
n -t 10.400000 -s 0 -x 3771.391572 -y 4922.953113 -U -4.999555 -V -9.899119 -T 0.100323
n -t 10.400000 -s 2 -x 3782.902201 -y 4946.554757 -U -3.201688 -V -6.804381 -T 0.100635
n -t 10.400000 -s 1 -x 2175.361493 -y 3163.935286 -U -2.392209 -V -8.769575 -T 0.100950
n -t 10.400000 -s 3 -x 2347.092447 -y 3526.821891 -U 4.894850 -V -1.395903 -T 0.101648
n -t 10.400000 -s 4 -x 3153.691889 -y 3314.626606 -U -0.898568 -V -2.998245 -T 0.102262
n -t 10.500000 -s 0 -x 3770.891617 -y 4921.963201 -U -5.083064 -V -9.867748 -T 0.100651
n -t 10.500000 -s 2 -x 3782.582032 -y 4945.874319 -U -3.304718 -V -7.010089 -T 0.100472
n -t 10.500000 -s 1 -x 2175.122272 -y 3163.058328 -U -2.494059 -V -8.980093 -T 0.101149
n -t 10.500000 -s 3 -x 2347.581931 -y 3526.682301 -U 5.154575 -V -1.316342 -T 0.100507
n -t 10.500000 -s 4 -x 3153.602032 -y 3314.326781 -U -0.912291 -V -3.140163 -T 0.100880
n -t 10.600000 -s 0 -x 3770.383310 -y 4920.976426 -U -5.031237 -V -9.860606 -T 0.100037
n -t 10.600000 -s 2 -x 3782.251560 -y 4945.173310 -U -3.403219 -V -7.206872 -T 0.100364
n -t 10.600000 -s 1 -x 2174.872866 -y 3162.160319 -U -2.600856 -V -9.105847 -T 0.101069
n -t 10.600000 -s 3 -x 2348.097389 -y 3526.550667 -U 5.318767 -V -1.476862 -T 0.102018
n -t 10.600000 -s 4 -x 3153.510803 -y 3314.012765 -U -0.987493 -V -3.357806 -T 0.102080
n -t 10.700000 -s 0 -x 3769.880187 -y 4919.990366 -U -5.074145 -V -9.849845 -T 0.100546
n -t 10.700000 -s 2 -x 3781.911238 -y 4944.452623 -U -3.386201 -V -7.369243 -T 0.100773
n -t 10.700000 -s 1 -x 2174.612780 -y 3161.249734 -U -2.612228 -V -9.341642 -T 0.100596
n -t 10.700000 -s 3 -x 2348.629266 -y 3526.402981 -U 5.478385 -V -1.422288 -T 0.100529
n -t 10.700000 -s 4 -x 3153.412054 -y 3313.676984 -U -1.014258 -V -3.547870 -T 0.100619
n -t 10.800000 -s 0 -x 3769.372772 -y 4919.005381 -U -5.003929 -V -9.807181 -T 0.100475
n -t 10.800000 -s 2 -x 3781.572618 -y 4943.715698 -U -3.518073 -V -7.539600 -T 0.100231
n -t 10.800000 -s 1 -x 2174.351558 -y 3160.315570 -U -2.695549 -V -9.286706 -T 0.100743
n -t 10.800000 -s 3 -x 2349.177104 -y 3526.260752 -U 5.657411 -V -1.488691 -T 0.101265
n -t 10.800000 -s 4 -x 3153.310628 -y 3313.322197 -U -1.095477 -V -3.784644 -T 0.100986
n -t 10.900000 -s 0 -x 3768.872379 -y 4918.024663 -U -5.003719 -V -9.807288 -T 0.100401
n -t 10.900000 -s 2 -x 3781.220811 -y 4942.961738 -U -3.591516 -V -7.681888 -T 0.100462
n -t 10.900000 -s 1 -x 2174.082003 -y 3159.386899 -U -2.484523 -V -8.941227 -T 0.101429
n -t 10.900000 -s 3 -x 2349.742845 -y 3526.111883 -U 5.877848 -V -1.593426 -T 0.101594
n -t 10.900000 -s 4 -x 3153.201080 -y 3312.943733 -U -1.189265 -V -3.965507 -T 0.101811
n -t 11.000000 -s 0 -x 3768.372007 -y 4917.043934 -U -5.008732 -V -9.916890 -T 0.100226
n -t 11.000000 -s 2 -x 3780.861659 -y 4942.193549 -U -3.595540 -V -7.889296 -T 0.100586
n -t 11.000000 -s 1 -x 2173.833550 -y 3158.492777 -U -2.404234 -V -8.714428 -T 0.101301
n -t 11.000000 -s 3 -x 2350.330630 -y 3525.952540 -U 6.087177 -V -1.623661 -T 0.100107
n -t 11.000000 -s 4 -x 3153.082154 -y 3312.547182 -U -1.208337 -V -4.126733 -T 0.101093
n -t 11.100000 -s 0 -x 3767.871134 -y 4916.052245 -U -5.003627 -V -9.807335 -T 0.100154
n -t 11.100000 -s 2 -x 3780.502105 -y 4941.404620 -U -3.796432 -V -7.994348 -T 0.100649
n -t 11.100000 -s 1 -x 2173.593127 -y 3157.621334 -U -2.394554 -V -8.384778 -T 0.101533
n -t 11.100000 -s 3 -x 2350.939348 -y 3525.790174 -U 6.201130 -V -1.700261 -T 0.100087
n -t 11.100000 -s 4 -x 3152.961320 -y 3312.134509 -U -1.187484 -V -4.350860 -T 0.102166
n -t 11.200000 -s 0 -x 3767.370771 -y 4915.071512 -U -5.083259 -V -9.867648 -T 0.100481
n -t 11.200000 -s 2 -x 3780.122462 -y 4940.605185 -U -3.801454 -V -8.201862 -T 0.100609
n -t 11.200000 -s 1 -x 2173.353671 -y 3156.782856 -U -2.305596 -V -8.118979 -T 0.101350
n -t 11.200000 -s 3 -x 2351.559461 -y 3525.620148 -U 6.388455 -V -1.696979 -T 0.100265
n -t 11.200000 -s 4 -x 3152.842572 -y 3311.699423 -U -1.404863 -V -4.527026 -T 0.101484
n -t 11.300000 -s 0 -x 3766.862445 -y 4914.084747 -U -5.017538 -V -9.833916 -T 0.100138
n -t 11.300000 -s 2 -x 3779.742317 -y 4939.784999 -U -3.903735 -V -8.308625 -T 0.100498
n -t 11.300000 -s 1 -x 2173.123112 -y 3155.970958 -U -2.111338 -V -7.737096 -T 0.100937
n -t 11.300000 -s 3 -x 2352.198306 -y 3525.450450 -U 6.599015 -V -1.799612 -T 0.100272
n -t 11.300000 -s 4 -x 3152.702086 -y 3311.246720 -U -1.303017 -V -4.702823 -T 0.101369
n -t 11.400000 -s 0 -x 3766.360692 -y 4913.101355 -U -4.995103 -V -9.890164 -T 0.100236
n -t 11.400000 -s 2 -x 3779.351943 -y 4938.954136 -U -4.006725 -V -8.514356 -T 0.100317
n -t 11.400000 -s 1 -x 2172.911978 -y 3155.197248 -U -2.102639 -V -7.511252 -T 0.100815
n -t 11.400000 -s 3 -x 2352.858208 -y 3525.270489 -U 6.841003 -V -1.784819 -T 0.101124
n -t 11.400000 -s 4 -x 3152.571784 -y 3310.776438 -U -1.485315 -V -4.858008 -T 0.102190
n -t 11.500000 -s 0 -x 3765.861181 -y 4912.112339 -U -5.110047 -V -9.819996 -T 0.100035
n -t 11.500000 -s 2 -x 3778.951271 -y 4938.102701 -U -3.997947 -V -8.694902 -T 0.100369
n -t 11.500000 -s 1 -x 2172.701714 -y 3154.446123 -U -2.082549 -V -7.142590 -T 0.101661
n -t 11.500000 -s 3 -x 2353.542308 -y 3525.092007 -U 7.035646 -V -1.908870 -T 0.100587
n -t 11.500000 -s 4 -x 3152.423252 -y 3310.290637 -U -1.409968 -V -5.025972 -T 0.101600
n -t 11.600000 -s 0 -x 3765.350177 -y 4911.130339 -U -4.986072 -V -9.872319 -T 0.100315
n -t 11.600000 -s 2 -x 3778.551476 -y 4937.233210 -U -4.194887 -V -8.889985 -T 0.100474
n -t 11.600000 -s 1 -x 2172.493459 -y 3153.731864 -U -1.898707 -V -6.986595 -T 0.101890
n -t 11.600000 -s 3 -x 2354.245873 -y 3524.901120 -U 7.222670 -V -1.906288 -T 0.100258
n -t 11.600000 -s 4 -x 3152.282256 -y 3309.788040 -U -1.609612 -V -5.238277 -T 0.100804
n -t 11.700000 -s 0 -x 3764.851569 -y 4910.143107 -U -5.008571 -V -9.916971 -T 0.100142
n -t 11.700000 -s 2 -x 3778.131988 -y 4936.344212 -U -4.190831 -V -9.178509 -T 0.100693
n -t 11.700000 -s 1 -x 2172.303589 -y 3153.033205 -U -1.895851 -V -6.592826 -T 0.102112
n -t 11.700000 -s 3 -x 2354.968140 -y 3524.710491 -U 7.449684 -V -1.986532 -T 0.100925
n -t 11.700000 -s 4 -x 3152.121294 -y 3309.264212 -U -1.498480 -V -5.489140 -T 0.100965
n -t 11.800000 -s 0 -x 3764.350712 -y 4909.151410 -U -5.110159 -V -9.819938 -T 0.099941
n -t 11.800000 -s 2 -x 3777.712904 -y 4935.426361 -U -4.421235 -V -9.347100 -T 0.100177
n -t 11.800000 -s 1 -x 2172.114003 -y 3152.373922 -U -1.813394 -V -6.345991 -T 0.101469
n -t 11.800000 -s 3 -x 2355.713108 -y 3524.511838 -U 7.639830 -V -2.010722 -T 0.100381
n -t 11.800000 -s 4 -x 3151.971446 -y 3308.715298 -U -1.703653 -V -5.617336 -T 0.100635
n -t 11.900000 -s 0 -x 3763.840000 -y 4908.170000 -U -4.977014 -V -9.854488 -T 0.100462
n -t 11.900000 -s 2 -x 3777.270781 -y 4934.491651 -U -4.673526 -V -9.447209 -T 0.100734
n -t 11.900000 -s 1 -x 2171.932664 -y 3151.739323 -U -1.702628 -V -6.107099 -T 0.101410
n -t 11.900000 -s 3 -x 2356.477091 -y 3524.310766 -U 7.773251 -V -2.092624 -T 0.100718
n -t 11.900000 -s 4 -x 3151.801081 -y 3308.153565 -U -1.681100 -V -5.832564 -T 0.101767
n -t 12.000000 -s 0 -x 3763.342299 -y 4907.184551 -U -5.026256 -V -9.851921 -T 0.099935
n -t 12.000000 -s 2 -x 3776.803428 -y 4933.546930 -U -4.931280 -V -9.563476 -T 0.100061
n -t 12.000000 -s 1 -x 2171.762401 -y 3151.128613 -U -1.606443 -V -5.822451 -T 0.101094
n -t 12.000000 -s 3 -x 2357.254416 -y 3524.101503 -U 7.983703 -V -2.195198 -T 0.100904
n -t 12.000000 -s 4 -x 3151.632971 -y 3307.570308 -U -1.812062 -V -6.044215 -T 0.100974
+ -t 12.000000000 -s 0 -d -1 -p AODV -e 48 -c 2 -a 0 -i 0 -k RTR 
- -t 12.000000000 -s 0 -d -1 -p AODV -e 48 -c 2 -a 0 -i 0 -k RTR
h -t 12.000000000 -s 0 -d -1 -p AODV -e 48 -c 2 -a 0 -i 0 -k RTR
r -t 12.000988099 -s 2 -d -1 -p AODV -e 48 -c 2 -a 0 -i 0 -k RTR
r -t 12.000988195 -s 15 -d -1 -p AODV -e 48 -c 2 -a 0 -i 0 -k RTR
r -t 12.000988195 -s 19 -d -1 -p AODV -e 48 -c 2 -a 0 -i 0 -k RTR
+ -t 12.002126278 -s 15 -d -1 -p AODV -e 48 -c 2 -a 0 -i 0 -k RTR 
- -t 12.002126278 -s 15 -d -1 -p AODV -e 48 -c 2 -a 0 -i 0 -k RTR
h -t 12.002126278 -s 15 -d -1 -p AODV -e 48 -c 2 -a 0 -i 0 -k RTR
r -t 12.003234278 -s 19 -d -1 -p AODV -e 48 -c 2 -a 0 -i 0 -k RTR
r -t 12.003234375 -s 2 -d -1 -p AODV -e 48 -c 2 -a 0 -i 0 -k RTR
r -t 12.003234473 -s 0 -d -1 -p AODV -e 48 -c 2 -a 0 -i 0 -k RTR
+ -t 12.007388775 -s 2 -d -1 -p AODV -e 48 -c 2 -a 0 -i 0 -k RTR 
- -t 12.007388775 -s 2 -d -1 -p AODV -e 48 -c 2 -a 0 -i 0 -k RTR
h -t 12.007388775 -s 2 -d -1 -p AODV -e 48 -c 2 -a 0 -i 0 -k RTR
r -t 12.008676872 -s 15 -d -1 -p AODV -e 48 -c 2 -a 0 -i 0 -k RTR
r -t 12.008676872 -s 19 -d -1 -p AODV -e 48 -c 2 -a 0 -i 0 -k RTR
r -t 12.008676874 -s 0 -d -1 -p AODV -e 48 -c 2 -a 0 -i 0 -k RTR
+ -t 12.009585472 -s 19 -d -1 -p AODV -e 48 -c 2 -a 0 -i 0 -k RTR 
- -t 12.009585472 -s 19 -d -1 -p AODV -e 48 -c 2 -a 0 -i 0 -k RTR
h -t 12.009585472 -s 19 -d -1 -p AODV -e 48 -c 2 -a 0 -i 0 -k RTR
r -t 12.010733472 -s 15 -d -1 -p AODV -e 48 -c 2 -a 0 -i 0 -k RTR
r -t 12.010733569 -s 2 -d -1 -p AODV -e 48 -c 2 -a 0 -i 0 -k RTR
r -t 12.010733668 -s 0 -d -1 -p AODV -e 48 -c 2 -a 0 -i 0 -k RTR
n -t 12.100000 -s 0 -x 3762.840000 -y 4906.200000 -U -5.074159 -V -9.849838 -T 0.100509
n -t 12.100000 -s 2 -x 3776.310300 -y 4932.590583 -U -4.990109 -V -9.780553 -T 0.100258
n -t 12.100000 -s 1 -x 2171.601757 -y 3150.546368 -U -1.595560 -V -5.586617 -T 0.101379
n -t 12.100000 -s 3 -x 2358.052786 -y 3523.881983 -U 8.209545 -V -2.203038 -T 0.100762
n -t 12.100000 -s 4 -x 3151.451765 -y 3306.965887 -U -1.796046 -V -6.184482 -T 0.101203
n -t 12.200000 -s 0 -x 3762.332584 -y 4905.215016 -U -4.994825 -V -9.789373 -T 0.100621
n -t 12.200000 -s 2 -x 3775.811289 -y 4931.612527 -U -5.008263 -V -9.816196 -T 0.100092
n -t 12.200000 -s 1 -x 2171.442201 -y 3149.987706 -U -1.507389 -V -5.424452 -T 0.100970
n -t 12.200000 -s 3 -x 2358.873741 -y 3523.661680 -U 8.367672 -V -2.191932 -T 0.101134